rsync: link_stat "/home/vandort/.globus/x509up_u10329" failed: No such file or directory (2)
rsync error: some files/attrs were not transferred (see previous errors) (code 23) at main.c(1039) [sender=3.0.6]

                                 *****************
                                 * O   R   C   A *
                                 *****************

           --- An Ab Initio, DFT and Semiempirical electronic structure package ---

                  #######################################################
                  #                        -***-                        #
                  #  Department of molecular theory and spectroscopy    #
                  #              Directorship: Frank Neese              #
                  # Max Planck Institute for Chemical Energy Conversion #
                  #                  D-45470 Muelheim/Ruhr              #
                  #                       Germany                       #
                  #                                                     #
                  #                  All rights reserved                #
                  #                        -***-                        #
                  #######################################################


                         Program Version 3.0.3 - RELEASE   -


 With contributions from (in alphabetic order):
   Ute Becker             : Parallelization
   Dmytro Bykov           : SCF Hessian
   Dmitry Ganyushin       : Spin-Orbit,Spin-Spin,Magnetic field MRCI
   Andreas Hansen         : Spin unrestricted coupled pair/coupled cluster methods
   Dimitrios Liakos       : Extrapolation schemes; parallel MDCI
   Robert Izsak           : Overlap fitted RIJCOSX, COSX-SCS-MP3
   Christian Kollmar      : KDIIS, OOCD, Brueckner-CCSD(T), CCSD density
   Simone Kossmann        : Meta GGA functionals, TD-DFT gradient, OOMP2, MP2 Hessian
   Taras Petrenko         : DFT Hessian,TD-DFT gradient, ASA and ECA modules, normal mode analysis, Resonance Raman, ABS, FL, XAS/XES, NRVS
   Christoph Reimann      : Effective Core Potentials
   Michael Roemelt        : Restricted open shell CIS
   Christoph Riplinger    : Improved optimizer, TS searches, QM/MM, DLPNO-CCSD
   Barbara Sandhoefer     : DKH picture change effects
   Igor Schapiro          : Molecular dynamics
   Kantharuban Sivalingam : CASSCF convergence, NEVPT2
   Boris Wezisla          : Elementary symmetry handling
   Frank Wennmohs         : Technical directorship


 We gratefully acknowledge several colleagues who have allowed us to
 interface, adapt or use parts of their codes:
   Stefan Grimme, W. Hujo, H. Kruse, T. Risthaus : VdW corrections, initial TS optimization,
                                                   DFT functionals, gCP
   Ed Valeev                                     : LibInt (2-el integral package), F12 methods
   Garnet Chan, S. Sharma, R. Olivares           : DMRG
   Ulf Ekstrom                                   : XCFun DFT Library
   Mihaly Kallay                                 : mrcc  (arbitrary order and MRCC methods)
   Andreas Klamt, Michael Diedenhofen            : otool_cosmo (COSMO solvation model)
   Frank Weinhold                                : gennbo (NPA and NBO analysis)
   Christopher J. Cramer and Donald G. Truhlar   : smd solvation model


 Your calculation uses the libint2 library for the computation of 2-el integrals
 For citations please refer to: http://libint.valeyev.net

 This ORCA versions uses:
   CBLAS   interface :  Fast vector & matrix operations
   LAPACKE interface :  Fast linear algebra routines
   SCALAPACK package :  Parallel linear algebra routines


Your calculation utilizes the basis: Ahlrichs-VDZ
Cite in your paper:
H - Kr: A. Schaefer, H. Horn and R. Ahlrichs, J. Chem. Phys. 97, 2571 (1992).

Your calculation utilizes the basis: Ahlrichs SVPalls1+f
Cite in your paper:
Rb - Xe: A. Schaefer, C. Huber and R. Ahlrichs, J. Chem. Phys. 100, 5829 (1994).

Your calculation utilizes pol. fcns from basis: Ahlrichs polarization
Cite in your paper:
H - Kr: R. Ahlrichs and coworkers, unpublished

================================================================================
                                        WARNINGS
                       Please study these warnings very carefully!
================================================================================

WARNING: The RI method has been chosen with no auxiliary basis (AUX or GTOAUX in BASIS block)
Your calculation utilizes aux bases from the TurboMole library
Cite in your paper:
The Ahlrichs auxiliary basis sets were obtained from the TurboMole
basis set library under ftp.chemie.uni-karlsruhe.de/pub/jbasen
H - Ba; Hf - At:
      1) K. Eichkorn, O. Treutler, H. Ohm, M. Haser and R. Ahlrichs,
         Chem. Phys. Letters 240, 283 (1995).
      2) K. Eichkorn, F. Weigend, O. Treutler, R. Ahlrichs,
         Theor. Chem. Acc. 97, 119 (1997)
Rb-I : uncontracted bases constructed by FN 'by inspection' (01/2002)


        Standard SV/J expansion basis used (GTOAUX=VDZ_J)

Now building the actual basis set

WARNING: Geometry Optimization
  ===> : Switching off AutoStart
         For restart on a previous wavefunction, please use MOREAD


INFO   : the flag for use of LIBINT has been found!

================================================================================
                                       INPUT FILE
================================================================================
NAME = Acrylic_acid.inp
|  1> %scf MaxIter 1000 end
|  2> ! RKS B3LYP SVP Grid4
|  3> ! opt
|  4> !RIJCOSX 
|  5> 
|  6> * xyz 0 1
|  7>   
|  8> C         -2.88674        1.57734       -0.00649
|  9> C         -1.78652        0.82512       -0.13188
| 10> H         -2.82926        2.63086        0.25471
| 11> H         -3.87158        1.15069       -0.16348
| 12> C         -0.45444        1.40663        0.08191
| 13> H         -1.83949       -0.22478       -0.39161
| 14> O          0.48977        0.46833       -0.08941
| 15> O         -0.18480        2.55564        0.37237
| 16> H          1.32684        0.95053        0.07387
| 17> *
| 18> 
| 19>                          ****END OF INPUT****
================================================================================

                       *****************************
                       * Geometry Optimization Run *
                       *****************************

Geometry optimization settings:
Update method            Update   .... BFGS
Choice of coordinates    CoordSys .... Redundant Internals
Initial Hessian          InHess   .... Almoef's Model

Convergence Tolerances:
Energy Change            TolE     ....  5.0000e-06 Eh
Max. Gradient            TolMAXG  ....  3.0000e-04 Eh/bohr
RMS Gradient             TolRMSG  ....  1.0000e-04 Eh/bohr
Max. Displacement        TolMAXD  ....  4.0000e-03 bohr
RMS Displacement         TolRMSD  ....  2.0000e-03 bohr

------------------------------------------------------------------------------
                        ORCA OPTIMIZATION COORDINATE SETUP
------------------------------------------------------------------------------

The optimization will be done in new redundant internal coordinates
Making redundant internal coordinates   ...  (new redundants) done
Evaluating the initial hessian          ...  (Almloef) done
Evaluating the coordinates              ...  done
Calculating the B-matrix                .... done
Calculating the G-matrix                .... done
Diagonalizing the G-matrix              .... done
The first mode is                       ....    7
The number of degrees of freedom        ....   21

    -----------------------------------------------------------------
                    Redundant Internal Coordinates


    -----------------------------------------------------------------
         Definition                    Initial Value    Approx d2E/dq
    -----------------------------------------------------------------
      1. B(C   1,C   0)                  1.3387         0.754449   
      2. B(H   2,C   0)                  1.0869         0.364174   
      3. B(H   3,C   0)                  1.0847         0.367173   
      4. B(C   4,C   1)                  1.4691         0.467215   
      5. B(H   5,C   1)                  1.0828         0.369689   
      6. B(O   6,C   4)                  1.3421         0.667210   
      7. B(O   7,C   4)                  1.2154         1.062608   
      8. B(H   8,O   6)                  0.9797         0.483610   
      9. A(C   1,C   0,H   3)          120.7725         0.366114   
     10. A(H   2,C   0,H   3)          117.6477         0.292247   
     11. A(C   1,C   0,H   2)          121.5798         0.365600   
     12. A(C   4,C   1,H   5)          117.5834         0.338015   
     13. A(C   0,C   1,H   5)          121.8085         0.366543   
     14. A(C   0,C   1,C   4)          120.6081         0.427363   
     15. A(C   1,C   4,O   6)          110.0351         0.415374   
     16. A(O   6,C   4,O   7)          122.3669         0.478850   
     17. A(C   1,C   4,O   7)          127.5980         0.451628   
     18. A(C   4,O   6,H   8)          103.6340         0.370175   
     19. D(C   4,C   1,C   0,H   3)   -179.9840         0.040639   
     20. D(H   5,C   1,C   0,H   2)    179.9794         0.040639   
     21. D(C   4,C   1,C   0,H   2)     -0.0005         0.040639   
     22. D(H   5,C   1,C   0,H   3)     -0.0042         0.040639   
     23. D(O   6,C   4,C   1,H   5)     -0.3339         0.014865   
     24. D(O   7,C   4,C   1,C   0)     -0.3166         0.014865   
     25. D(O   6,C   4,C   1,C   0)    179.6468         0.014865   
     26. D(O   7,C   4,C   1,H   5)    179.7027         0.014865   
     27. D(H   8,O   6,C   4,O   7)      0.0251         0.033046   
     28. D(H   8,O   6,C   4,C   1)   -179.9406         0.033046   
    -----------------------------------------------------------------

Number of atoms                         .... 9
Number of degrees of freedom            .... 28

         *************************************************************
         *                GEOMETRY OPTIMIZATION CYCLE   1            *
         *************************************************************
---------------------------------
CARTESIAN COORDINATES (ANGSTROEM)
---------------------------------
  C     -2.886740    1.577340   -0.006490
  C     -1.786520    0.825120   -0.131880
  H     -2.829260    2.630860    0.254710
  H     -3.871580    1.150690   -0.163480
  C     -0.454440    1.406630    0.081910
  H     -1.839490   -0.224780   -0.391610
  O      0.489770    0.468330   -0.089410
  O     -0.184800    2.555640    0.372370
  H      1.326840    0.950530    0.073870

----------------------------
CARTESIAN COORDINATES (A.U.)
----------------------------
  NO LB      ZA    FRAG    MASS        X           Y           Z
   0 C     6.0000    0    12.011         -5.455148019835834          2.980740620079347         -0.012264322609149
   1 C     6.0000    0    12.011         -3.376033532772995          1.559250827621103         -0.249217082541535
   2 H     1.0000    0     1.008         -5.346526561658041          4.971604896688064          0.481332143571082
   3 H     1.0000    0     1.008         -7.316225905566839          2.174488965041845         -0.308932428373446
   4 C     6.0000    0    12.011         -0.858767144299174          2.658145471757650          0.154787467629490
   5 H     1.0000    0     1.008         -3.476132326086804         -0.424772640382819         -0.740035651304901
   6 O     8.0000    0    15.999          0.925531168610611          0.885015440299340         -0.168960413633899
   7 O     8.0000    0    15.999         -0.349221389548647          4.829459696894507          0.703677320488256
   8 H     1.0000    0     1.008          2.507364223532074          1.796241382076167          0.139594069512763

--------------------------------
INTERNAL COORDINATES (ANGSTROEM)
--------------------------------
 C      0   0   0   0.000000     0.000     0.000
 C      1   0   0   1.338672     0.000     0.000
 H      1   2   0   1.086938   121.580     0.000
 H      1   2   3   1.084705   120.773   180.016
 C      2   1   3   1.469114   120.608     0.000
 H      2   1   3   1.082846   121.808   179.979
 O      5   2   1   1.342121   110.035   179.647
 O      5   2   1   1.215441   127.598   359.683
 H      7   5   2   0.979726   103.634   180.059

---------------------------
INTERNAL COORDINATES (A.U.)
---------------------------
 C      0   0   0   0.000000     0.000     0.000
 C      1   0   0   2.529723     0.000     0.000
 H      1   2   0   2.054015   121.580     0.000
 H      1   2   3   2.049796   120.773   180.016
 C      2   1   3   2.776224   120.608     0.000
 H      2   1   3   2.046282   121.808   179.979
 O      5   2   1   2.536242   110.035   179.647
 O      5   2   1   2.296851   127.598   359.683
 H      7   5   2   1.851414   103.634   180.059

---------------------
BASIS SET INFORMATION
---------------------
There are 3 groups of distinct atoms

 Group   1 Type C   : 7s4p1d contracted to 3s2p1d pattern {511/31/1}
 Group   2 Type H   : 4s1p contracted to 2s1p pattern {31/1}
 Group   3 Type O   : 7s4p1d contracted to 3s2p1d pattern {511/31/1}

Atom   0C    basis set group =>   1
Atom   1C    basis set group =>   1
Atom   2H    basis set group =>   2
Atom   3H    basis set group =>   2
Atom   4C    basis set group =>   1
Atom   5H    basis set group =>   2
Atom   6O    basis set group =>   3
Atom   7O    basis set group =>   3
Atom   8H    basis set group =>   2
-------------------------------
AUXILIARY BASIS SET INFORMATION
-------------------------------
There are 3 groups of distinct atoms

 Group   1 Type C   : 8s3p3d1f contracted to 6s3p3d1f pattern {311111/111/111/1}
 Group   2 Type H   : 4s2p contracted to 2s1p pattern {31/2}
 Group   3 Type O   : 8s3p3d1f contracted to 6s3p3d1f pattern {311111/111/111/1}

Atom   0C    basis set group =>   1
Atom   1C    basis set group =>   1
Atom   2H    basis set group =>   2
Atom   3H    basis set group =>   2
Atom   4C    basis set group =>   1
Atom   5H    basis set group =>   2
Atom   6O    basis set group =>   3
Atom   7O    basis set group =>   3
Atom   8H    basis set group =>   2
------------------------------------------------------------------------------
                           ORCA GTO INTEGRAL CALCULATION
                           -- RI-GTO INTEGRALS CHOSEN --
------------------------------------------------------------------------------

                         BASIS SET STATISTICS AND STARTUP INFO

Gaussian basis set:
 # of primitive gaussian shells          ...   80
 # of primitive gaussian functions       ...  148
 # of contracted shells                  ...   42
 # of contracted basis functions         ...   90
 Highest angular momentum                ...    2
 Maximum contraction depth               ...    5
Auxiliary gaussian basis set:
 # of primitive gaussian shells          ...   99
 # of primitive gaussian functions       ...  235
 # of contracted shells                  ...   77
 # of contracted aux-basis functions     ...  205
 Highest angular momentum                ...    3
 Maximum contraction depth               ...    3
Ratio of auxiliary to basis functions    ...  2.28
Integral package used                  ... LIBINT
 One Electron integrals                  ... done
 Ordering auxiliary basis shells         ... done
 Integral threshhold             Thresh  ...  2.500e-11
 Primitive cut-off               TCut    ...  2.500e-12
 Pre-screening matrix                    ... done
 Shell pair data                         ... 
 Ordering of the shell pairs             ... done (   0.000 sec) 885 of 903 pairs
 Determination of significant pairs      ... done (   0.000 sec)
 Creation of shell pair data             ... done (   0.001 sec)
 Storage of shell pair data              ... done (   0.001 sec)
 Shell pair data done in (   0.002 sec)
 Computing two index integrals           ... done
 Cholesky decomposition of the V-matrix  ... done


Timings:
 Total evaluation time                   ...   0.176 sec (  0.003 min)
 One electron matrix time                ...   0.011 sec (  0.000 min) =  6.1%
 Schwartz matrix evaluation time         ...   0.134 sec (  0.002 min) = 76.5%
 Two index repulsion integral time       ...   0.002 sec (  0.000 min) =  1.0%
 Cholesky decomposition of V             ...   0.004 sec (  0.000 min) =  2.0%
 Three index repulsion integral time     ...   0.000 sec (  0.000 min) =  0.1%

-------------------------------------------------------------------------------
                                 ORCA SCF
-------------------------------------------------------------------------------

------------
SCF SETTINGS
------------
Hamiltonian:
 Density Functional     Method          .... DFT(GTOs)
 Exchange Functional    Exchange        .... B88
   X-Alpha parameter    XAlpha          ....  0.666667
   Becke's b parameter  XBeta           ....  0.004200
 Correlation Functional Correlation     .... LYP
 LDA part of GGA corr.  LDAOpt          .... VWN-5
 Gradients option       PostSCFGGA      .... off
 Hybrid DFT is turned on
   Fraction HF Exchange ScalHFX         ....  0.200000
   Scaling of DF-GGA-X  ScalDFX         ....  0.720000
   Scaling of DF-GGA-C  ScalDFC         ....  0.810000
   Scaling of DF-LDA-C  ScalLDAC        ....  1.000000
   Perturbative correction              ....  0.000000
   NL short-range parameter             ....  4.800000
 RI-approximation to the Coulomb term is turned on
   Number of auxiliary basis functions  .... 205
   RIJ-COSX (HFX calculated with COS-X)).... on


General Settings:
 Integral files         IntName         .... Acrylic_acid
 Hartree-Fock type      HFTyp           .... RHF
 Total Charge           Charge          ....    0
 Multiplicity           Mult            ....    1
 Number of Electrons    NEL             ....   38
 Basis Dimension        Dim             ....   90
 Nuclear Repulsion      ENuc            ....    162.6864202281 Eh

Convergence Acceleration:
 DIIS                   CNVDIIS         .... on
   Start iteration      DIISMaxIt       ....    12
   Startup error        DIISStart       ....  0.200000
   # of expansion vecs  DIISMaxEq       ....     5
   Bias factor          DIISBfac        ....   1.050
   Max. coefficient     DIISMaxC        ....  10.000
 Newton-Raphson         CNVNR           .... off
 SOSCF                  CNVSOSCF        .... on
   Start iteration      SOSCFMaxIt      ....   150
   Startup grad/error   SOSCFStart      ....  0.003300
 Level Shifting         CNVShift        .... on
   Level shift para.    LevelShift      ....    0.2500
   Turn off err/grad.   ShiftErr        ....    0.0010
 Zerner damping         CNVZerner       .... off
 Static damping         CNVDamp         .... on
   Fraction old density DampFac         ....    0.7000
   Max. Damping (<1)    DampMax         ....    0.9800
   Min. Damping (>=0)   DampMin         ....    0.0000
   Turn off err/grad.   DampErr         ....    0.1000
 Fernandez-Rico         CNVRico         .... off

SCF Procedure:
 Maximum # iterations   MaxIter         ....  1000
 SCF integral mode      SCFMode         .... Direct
   Integral package                     .... LIBINT
 Reset frequeny         DirectResetFreq ....    20
 Integral Threshold     Thresh          ....  2.500e-11 Eh
 Primitive CutOff       TCut            ....  2.500e-12 Eh

Convergence Tolerance:
 Convergence Check Mode ConvCheckMode   .... Total+1el-Energy
 Energy Change          TolE            ....  1.000e-08 Eh
 1-El. energy change                    ....  1.000e-05 Eh
 Orbital Gradient       TolG            ....  1.000e-05
 Orbital Rotation angle TolX            ....  1.000e-05
 DIIS Error             TolErr          ....  5.000e-07


Diagonalization of the overlap matrix:
Smallest eigenvalue                        ... 2.051e-03
Time for diagonalization                   ...    0.002 sec
Threshold for overlap eigenvalues          ... 1.000e-08
Number of eigenvalues below threshold      ... 0
Time for construction of square roots      ...    0.001 sec
Total time needed                          ...    0.003 sec

-------------------
DFT GRID GENERATION
-------------------

General Integration Accuracy     IntAcc      ...  4.670
Radial Grid Type                 RadialGrid  ... Gauss-Chebyshev
Angular Grid (max. acc.)         AngularGrid ... Lebedev-302
Angular grid pruning method      GridPruning ... 3 (G Style)
Weight generation scheme         WeightScheme... Becke
Basis function cutoff            BFCut       ...    1.0000e-11
Integration weight cutoff        WCut        ...    1.0000e-14
Grids for H and He will be reduced by one unit

# of grid points (after initial pruning)     ...  44636 (   0.0 sec)
# of grid points (after weights+screening)   ...  42452 (   0.1 sec)
nearest neighbour list constructed           ...    0.0 sec
Grid point re-assignment to atoms done       ...    0.0 sec
Grid point division into batches done        ...    0.2 sec
Reduced shell lists constructed in    0.6 sec

Total number of grid points                  ...    42452
Total number of batches                      ...      668
Average number of points per batch           ...       63
Average number of grid points per atom       ...     4717
Average number of shells per batch           ...    30.04 (71.52%)
Average number of basis functions per batch  ...    64.28 (71.42%)
Average number of large shells per batch     ...    24.69 (82.19%)
Average number of large basis fcns per batch ...    51.89 (80.72%)
Maximum spatial batch extension              ...  16.10, 17.61, 22.60 au
Average spatial batch extension              ...   2.66,  2.84,  3.12 au

Time for grid setup =    0.732 sec

------------------------------
INITIAL GUESS: MODEL POTENTIAL
------------------------------
Loading Hartree-Fock densities                     ... done
Calculating cut-offs                               ... done
Setting up the integral package                    ... done
Initializing the effective Hamiltonian             ... done
Starting the Coulomb interaction                   ... done (   0.1 sec)
Reading the grid                                   ... done
Mapping shells                                     ... done
Starting the XC term evaluation                    ... done (   0.6 sec)
  promolecular density results
     # of electrons  =     37.998037005
     EX              =    -32.978044639
     EC              =     -1.301038184
     EX+EC           =    -34.279082824
Transforming the Hamiltonian                       ... done (   0.0 sec)
Diagonalizing the Hamiltonian                      ... done (   0.0 sec)
Back transforming the eigenvectors                 ... done (   0.0 sec)
Now organizing SCF variables                       ... done
                      ------------------
                      INITIAL GUESS DONE (   1.5 sec)
                      ------------------
--------------------
COSX GRID GENERATION
--------------------

General Integration Accuracy     IntAcc      ...  3.340
Radial Grid Type                 RadialGrid  ... Gauss-Chebyshev
Angular Grid (max. acc.)         AngularGrid ... Lebedev-50
Angular grid pruning method      GridPruning ... 3 (G Style)
Weight generation scheme         WeightScheme... Becke
Basis function cutoff            BFCut       ...    1.0000e-11
Integration weight cutoff        WCut        ...    1.0000e-14
Grids for H and He will be reduced by one unit

# of grid points (after initial pruning)     ...   4180 (   0.0 sec)
# of grid points (after weights+screening)   ...   4037 (   0.0 sec)
nearest neighbour list constructed           ...    0.0 sec
Grid point re-assignment to atoms done       ...    0.0 sec
Grid point division into batches done        ...    0.0 sec
Reduced shell lists constructed in    0.0 sec

Total number of grid points                  ...     4037
Total number of batches                      ...       66
Average number of points per batch           ...       61
Average number of grid points per atom       ...      449
Average number of shells per batch           ...    35.03 (83.40%)
Average number of basis functions per batch  ...    76.07 (84.53%)
Average number of large shells per batch     ...    30.18 (86.15%)
Average number of large basis fcns per batch ...    64.60 (84.91%)
Maximum spatial batch extension              ...  14.29, 20.68, 25.32 au
Average spatial batch extension              ...   4.96,  5.78,  6.79 au

Overlap Fitting                  UseSFitting ... on
Constructing numerical overlap ... done (      0.0 sec)
Inverting numerical overlap    ... done (      0.0 sec)
Obtaining analytic overlap     ... done (      0.0 sec)
Final contraction and storage  ... done (      0.0 sec)


General Integration Accuracy     IntAcc      ...  3.670
Radial Grid Type                 RadialGrid  ... Gauss-Chebyshev
Angular Grid (max. acc.)         AngularGrid ... Lebedev-50
Angular grid pruning method      GridPruning ... 3 (G Style)
Weight generation scheme         WeightScheme... Becke
Basis function cutoff            BFCut       ...    1.0000e-11
Integration weight cutoff        WCut        ...    1.0000e-14
Grids for H and He will be reduced by one unit

# of grid points (after initial pruning)     ...   5322 (   0.0 sec)
# of grid points (after weights+screening)   ...   5131 (   0.0 sec)
nearest neighbour list constructed           ...    0.0 sec
Grid point re-assignment to atoms done       ...    0.0 sec
Grid point division into batches done        ...    0.0 sec
Reduced shell lists constructed in    0.1 sec

Total number of grid points                  ...     5131
Total number of batches                      ...       84
Average number of points per batch           ...       61
Average number of grid points per atom       ...      570
Average number of shells per batch           ...    34.67 (82.55%)
Average number of basis functions per batch  ...    75.16 (83.52%)
Average number of large shells per batch     ...    29.72 (85.71%)
Average number of large basis fcns per batch ...    63.55 (84.55%)
Maximum spatial batch extension              ...  15.29, 22.63, 27.71 au
Average spatial batch extension              ...   4.57,  5.34,  6.25 au

Overlap Fitting                  UseSFitting ... on
Constructing numerical overlap ... done (      0.0 sec)
Inverting numerical overlap    ... done (      0.0 sec)
Obtaining analytic overlap     ... done (      0.0 sec)
Final contraction and storage  ... done (      0.0 sec)


General Integration Accuracy     IntAcc      ...  4.010
Radial Grid Type                 RadialGrid  ... Gauss-Chebyshev
Angular Grid (max. acc.)         AngularGrid ... Lebedev-110
Angular grid pruning method      GridPruning ... 3 (G Style)
Weight generation scheme         WeightScheme... Becke
Basis function cutoff            BFCut       ...    1.0000e-11
Integration weight cutoff        WCut        ...    1.0000e-14
Grids for H and He will be reduced by one unit

# of grid points (after initial pruning)     ...   9920 (   0.0 sec)
# of grid points (after weights+screening)   ...   9526 (   0.0 sec)
nearest neighbour list constructed           ...    0.0 sec
Grid point re-assignment to atoms done       ...    0.0 sec
Grid point division into batches done        ...    0.0 sec
Reduced shell lists constructed in    0.1 sec

Total number of grid points                  ...     9526
Total number of batches                      ...      153
Average number of points per batch           ...       62
Average number of grid points per atom       ...     1058
Average number of shells per batch           ...    33.38 (79.47%)
Average number of basis functions per batch  ...    71.88 (79.87%)
Average number of large shells per batch     ...    28.03 (83.97%)
Average number of large basis fcns per batch ...    59.57 (82.87%)
Maximum spatial batch extension              ...  15.58, 20.96, 21.93 au
Average spatial batch extension              ...   4.05,  4.52,  5.13 au

Overlap Fitting                  UseSFitting ... on
Constructing numerical overlap ... done (      0.1 sec)
Inverting numerical overlap    ... done (      0.0 sec)
Obtaining analytic overlap     ... done (      0.0 sec)
Final contraction and storage  ... done (      0.0 sec)

Time for X-Grid setup             =    0.534 sec
--------------
SCF ITERATIONS
--------------
ITER       Energy         Delta-E        Max-DP      RMS-DP      [F,P]     Damp
               ***  Starting incremental Fock matrix formation  ***
  0   -266.6517822862   0.000000000000 0.10298735  0.00429653  0.2680829 0.7000
  1   -266.7370079953  -0.085225709048 0.06663792  0.00262911  0.1032517 0.7000
                               ***Turning on DIIS***
  2   -266.7666138070  -0.029605811695 0.06429785  0.00343357  0.0368812 0.0000
  3   -266.8181605941  -0.051546787119 0.05229403  0.00186131  0.0514010 0.0000
  4   -266.8272801145  -0.009119520405 0.00932970  0.00049701  0.0138119 0.0000
                      *** Initiating the SOSCF procedure ***
                           *** Shutting down DIIS ***
                      *** Re-Reading the Fockian *** 
                      *** Removing any level shift *** 
ITER      Energy       Delta-E        Grad      Rot      Max-DP    RMS-DP
  5   -266.82811967  -0.0008395547  0.000895  0.000895  0.002501  0.000139
               *** Restarting incremental Fock matrix formation ***
  6   -266.82814105  -0.0000213804  0.000571  0.002083  0.002916  0.000115
  7   -266.82812730   0.0000137467  0.001257  0.001507  0.001800  0.000072
  8   -266.82814713  -0.0000198226  0.000177  0.000343  0.000705  0.000025
  9   -266.82814662   0.0000005038  0.000287  0.000232  0.000411  0.000015
 10   -266.82814746  -0.0000008426  0.000015  0.000038  0.000084  0.000003
 11   -266.82814745   0.0000000115  0.000019  0.000022  0.000048  0.000001
 12   -266.82814746  -0.0000000112  0.000004  0.000015  0.000014  0.000000
 13   -266.82814747  -0.0000000016  0.000006  0.000009  0.000009  0.000000
                 **** Energy Check signals convergence ****
              ***Rediagonalizing the Fockian in SOSCF/NRSCF***

               *****************************************************
               *                     SUCCESS                       *
               *           SCF CONVERGED AFTER  14 CYCLES          *
               *****************************************************

Setting up the final grid:

General Integration Accuracy     IntAcc      ...  5.010
Radial Grid Type                 RadialGrid  ... Gauss-Chebyshev
Angular Grid (max. acc.)         AngularGrid ... Lebedev-434
Angular grid pruning method      GridPruning ... 3 (G Style)
Weight generation scheme         WeightScheme... Becke
Basis function cutoff            BFCut       ...    1.0000e-11
Integration weight cutoff        WCut        ...    1.0000e-14
Grids for H and He will be reduced by one unit

# of grid points (after initial pruning)     ...  80546 (   0.0 sec)
# of grid points (after weights+screening)   ...  76550 (   0.1 sec)
nearest neighbour list constructed           ...    0.0 sec
Grid point re-assignment to atoms done       ...    0.0 sec
Grid point division into batches done        ...    0.6 sec
Reduced shell lists constructed in    1.4 sec

Total number of grid points                  ...    76550
Total number of batches                      ...     1201
Average number of points per batch           ...       63
Average number of grid points per atom       ...     8506
Average number of shells per batch           ...    29.25 (69.64%)
Average number of basis functions per batch  ...    62.48 (69.43%)
Average number of large shells per batch     ...    23.77 (81.26%)
Average number of large basis fcns per batch ...    49.81 (79.72%)
Maximum spatial batch extension              ...  18.53, 18.87, 19.88 au
Average spatial batch extension              ...   2.21,  2.31,  2.48 au

Final grid set up in    1.6 sec
Final integration                            ... done (   1.1 sec)
Change in XC energy                          ...    -0.000011249
Integrated number of electrons               ...    38.000000242
Previous integrated no of electrons          ...    38.000007885
Old exchange energy                            =     -6.671324372 Eh
New exchange energy                            =     -6.671381650 Eh
Exchange energy change after final integration =     -0.000057278 Eh
Total energy after final integration           =   -266.828215991 Eh
Final COS-X integration done in                =     2.182 sec

----------------
TOTAL SCF ENERGY
----------------

Total Energy       :         -266.82821599 Eh           -7260.76489 eV

Components:
Nuclear Repulsion  :          162.68642023 Eh            4426.92255 eV
Electronic Energy  :         -429.51463622 Eh          -11687.68744 eV

One Electron Energy:         -685.43734279 Eh          -18651.69833 eV
Two Electron Energy:          255.92270657 Eh            6964.01089 eV

Virial components:
Potential Energy   :         -531.49550335 Eh          -14462.72792 eV
Kinetic Energy     :          264.66728736 Eh            7201.96303 eV
Virial Ratio       :            2.00816470


DFT components:
N(Alpha)           :       19.000000120965 electrons
N(Beta)            :       19.000000120965 electrons
N(Total)           :       38.000000241931 electrons
E(X)               :      -26.551547659968 Eh       
E(C)               :       -1.539716928742 Eh       
E(XC)              :      -28.091264588710 Eh       

---------------
SCF CONVERGENCE
---------------

  Last Energy change         ...    1.2668e-09  Tolerance :   1.0000e-08
  Last MAX-Density change    ...    5.3190e-14  Tolerance :   1.0000e-07
  Last RMS-Density change    ...    6.5255e-16  Tolerance :   5.0000e-09
  Last Orbital Gradient      ...    7.2788e-08  Tolerance :   1.0000e-05
  Last Orbital Rotation      ...    1.0709e-07  Tolerance :   1.0000e-05

             **** THE GBW FILE WAS UPDATED (Acrylic_acid.gbw) ****
             **** DENSITY FILE WAS UPDATED (Acrylic_acid.scfp.tmp) ****
             **** ENERGY FILE WAS UPDATED (Acrylic_acid.en.tmp) ****
----------------
ORBITAL ENERGIES
----------------

  NO   OCC          E(Eh)            E(eV) 
   0   2.0000     -19.180578      -521.9301 
   1   2.0000     -19.119123      -520.2578 
   2   2.0000     -10.314102      -280.6610 
   3   2.0000     -10.211360      -277.8652 
   4   2.0000     -10.205195      -277.6975 
   5   2.0000      -1.097321       -29.8596 
   6   2.0000      -0.998352       -27.1666 
   7   2.0000      -0.791194       -21.5295 
   8   2.0000      -0.667863       -18.1735 
   9   2.0000      -0.560736       -15.2584 
  10   2.0000      -0.516117       -14.0443 
  11   2.0000      -0.480392       -13.0721 
  12   2.0000      -0.452007       -12.2997 
  13   2.0000      -0.437702       -11.9105 
  14   2.0000      -0.413555       -11.2534 
  15   2.0000      -0.381811       -10.3896 
  16   2.0000      -0.323518        -8.8034 
  17   2.0000      -0.290519        -7.9054 
  18   2.0000      -0.280438        -7.6311 
  19   0.0000      -0.054928        -1.4947 
  20   0.0000       0.061075         1.6619 
  21   0.0000       0.081051         2.2055 
  22   0.0000       0.082248         2.2381 
  23   0.0000       0.109128         2.9695 
  24   0.0000       0.150762         4.1025 
  25   0.0000       0.232065         6.3148 
  26   0.0000       0.287577         7.8254 
  27   0.0000       0.300738         8.1835 
  28   0.0000       0.309302         8.4165 
  29   0.0000       0.400742        10.9047 
  30   0.0000       0.456721        12.4280 
  31   0.0000       0.458029        12.4636 
  32   0.0000       0.484724        13.1900 
  33   0.0000       0.532131        14.4800 
  34   0.0000       0.546266        14.8646 
  35   0.0000       0.569628        15.5004 
  36   0.0000       0.577652        15.7187 
  37   0.0000       0.636144        17.3104 
  38   0.0000       0.650406        17.6985 
  39   0.0000       0.662282        18.0216 
  40   0.0000       0.671547        18.2737 
  41   0.0000       0.704781        19.1781 
  42   0.0000       0.785473        21.3738 
  43   0.0000       0.799981        21.7686 
  44   0.0000       0.941121        25.6092 
  45   0.0000       0.953588        25.9485 
  46   0.0000       0.997608        27.1463 
  47   0.0000       1.063316        28.9343 
  48   0.0000       1.068724        29.0815 
  49   0.0000       1.170587        31.8533 
  50   0.0000       1.192298        32.4441 
  51   0.0000       1.226955        33.3871 
  52   0.0000       1.239813        33.7370 
  53   0.0000       1.334337        36.3091 
  54   0.0000       1.385218        37.6937 
  55   0.0000       1.389017        37.7971 
  56   0.0000       1.569668        42.7128 
  57   0.0000       1.584149        43.1069 
  58   0.0000       1.617143        44.0047 
  59   0.0000       1.660677        45.1893 
  60   0.0000       1.692156        46.0459 
  61   0.0000       1.700642        46.2768 
  62   0.0000       1.776746        48.3477 
  63   0.0000       1.785964        48.5986 
  64   0.0000       1.861186        50.6454 
  65   0.0000       1.908320        51.9280 
  66   0.0000       1.982088        53.9354 
  67   0.0000       2.007728        54.6331 
  68   0.0000       2.065416        56.2028 
  69   0.0000       2.113392        57.5083 
  70   0.0000       2.179018        59.2941 
  71   0.0000       2.213963        60.2450 
  72   0.0000       2.349516        63.9336 
  73   0.0000       2.436752        66.3074 
  74   0.0000       2.439424        66.3801 
  75   0.0000       2.485054        67.6218 
  76   0.0000       2.643709        71.9390 
  77   0.0000       2.688888        73.1683 
  78   0.0000       2.742697        74.6326 
  79   0.0000       2.782568        75.7175 
  80   0.0000       2.880465        78.3814 
  81   0.0000       2.932765        79.8046 
  82   0.0000       2.945052        80.1389 
  83   0.0000       3.047991        82.9400 
  84   0.0000       3.198117        87.0252 
  85   0.0000       3.228043        87.8395 
  86   0.0000       3.297082        89.7182 
  87   0.0000       3.513259        95.6006 
  88   0.0000       3.640842        99.0723 
  89   0.0000       3.798062       103.3505 

                    ********************************
                    * MULLIKEN POPULATION ANALYSIS *
                    ********************************

-----------------------
MULLIKEN ATOMIC CHARGES
-----------------------
   0 C :    0.044145
   1 C :   -0.073772
   2 H :    0.048178
   3 H :    0.032633
   4 C :    0.156412
   5 H :    0.014843
   6 O :   -0.173924
   7 O :   -0.226339
   8 H :    0.177825
Sum of atomic charges:   -0.0000000

--------------------------------
MULLIKEN REDUCED ORBITAL CHARGES
--------------------------------
  0 C s       :     3.114378  s :     3.114378
      pz      :     0.893006  p :     2.814388
      px      :     0.965067
      py      :     0.956315
      dz2     :     0.001599  d :     0.027089
      dxz     :     0.004136
      dyz     :     0.002304
      dx2y2   :     0.010729
      dxy     :     0.008321
  1 C s       :     3.183094  s :     3.183094
      pz      :     1.010110  p :     2.859262
      px      :     0.937322
      py      :     0.911831
      dz2     :     0.002479  d :     0.031417
      dxz     :     0.004215
      dyz     :     0.002942
      dx2y2   :     0.012353
      dxy     :     0.009427
  2 H s       :     0.927951  s :     0.927951
      pz      :     0.004621  p :     0.023871
      px      :     0.004321
      py      :     0.014928
  3 H s       :     0.943630  s :     0.943630
      pz      :     0.004540  p :     0.023737
      px      :     0.013268
      py      :     0.005930
  4 C s       :     3.026285  s :     3.026285
      pz      :     0.830151  p :     2.682099
      px      :     0.940238
      py      :     0.911711
      dz2     :     0.010265  d :     0.135204
      dxz     :     0.013110
      dyz     :     0.025603
      dx2y2   :     0.032460
      dxy     :     0.053765
  5 H s       :     0.961945  s :     0.961945
      pz      :     0.005080  p :     0.023212
      px      :     0.003273
      py      :     0.014858
  6 O s       :     3.679195  s :     3.679195
      pz      :     1.754240  p :     4.480511
      px      :     1.187763
      py      :     1.538509
      dz2     :     0.001916  d :     0.014218
      dxz     :     0.000984
      dyz     :     0.002420
      dx2y2   :     0.002159
      dxy     :     0.006738
  7 O s       :     3.723677  s :     3.723677
      pz      :     1.410614  p :     4.484529
      px      :     1.727201
      py      :     1.346714
      dz2     :     0.002327  d :     0.018133
      dxz     :     0.000512
      dyz     :     0.005542
      dx2y2   :     0.005585
      dxy     :     0.004167
  8 H s       :     0.756747  s :     0.756747
      pz      :     0.015752  p :     0.065428
      px      :     0.031497
      py      :     0.018180


                     *******************************
                     * LOEWDIN POPULATION ANALYSIS *
                     *******************************

----------------------
LOEWDIN ATOMIC CHARGES
----------------------
   0 C :    0.032036
   1 C :   -0.069003
   2 H :    0.036074
   3 H :    0.030447
   4 C :    0.072298
   5 H :    0.034146
   6 O :   -0.038714
   7 O :   -0.194983
   8 H :    0.097700

-------------------------------
LOEWDIN REDUCED ORBITAL CHARGES
-------------------------------
  0 C s       :     2.888464  s :     2.888464
      pz      :     0.887319  p :     3.010252
      px      :     1.063457
      py      :     1.059475
      dz2     :     0.004449  d :     0.069248
      dxz     :     0.008316
      dyz     :     0.004967
      dx2y2   :     0.029024
      dxy     :     0.022492
  1 C s       :     2.883962  s :     2.883962
      pz      :     0.988501  p :     3.098739
      px      :     1.055422
      py      :     1.054816
      dz2     :     0.006759  d :     0.086303
      dxz     :     0.009955
      dyz     :     0.005967
      dx2y2   :     0.034848
      dxy     :     0.028773
  2 H s       :     0.893903  s :     0.893903
      pz      :     0.014379  p :     0.070023
      px      :     0.011720
      py      :     0.043924
  3 H s       :     0.901207  s :     0.901207
      pz      :     0.013633  p :     0.068347
      px      :     0.037226
      py      :     0.017488
  4 C s       :     2.838991  s :     2.838991
      pz      :     0.824522  p :     2.793492
      px      :     0.975517
      py      :     0.993453
      dz2     :     0.021398  d :     0.295219
      dxz     :     0.025513
      dyz     :     0.051310
      dx2y2   :     0.072828
      dxy     :     0.124170
  5 H s       :     0.895522  s :     0.895522
      pz      :     0.016436  p :     0.070333
      px      :     0.011294
      py      :     0.042602
  6 O s       :     3.438613  s :     3.438613
      pz      :     1.717066  p :     4.572490
      px      :     1.256347
      py      :     1.599077
      dz2     :     0.004196  d :     0.027612
      dxz     :     0.002088
      dyz     :     0.002693
      dx2y2   :     0.004312
      dxy     :     0.014323
  7 O s       :     3.549055  s :     3.549055
      pz      :     1.415292  p :     4.614982
      px      :     1.731981
      py      :     1.467710
      dz2     :     0.004133  d :     0.030946
      dxz     :     0.000741
      dyz     :     0.007909
      dx2y2   :     0.011148
      dxy     :     0.007015
  8 H s       :     0.732472  s :     0.732472
      pz      :     0.043754  p :     0.169828
      px      :     0.074435
      py      :     0.051639


                      *****************************
                      * MAYER POPULATION ANALYSIS *
                      *****************************

  NA   - Mulliken gross atomic population
  ZA   - Total nuclear charge
  QA   - Mulliken gross atomic charge
  VA   - Mayer's total valence
  BVA  - Mayer's bonded valence
  FA   - Mayer's free valence

  ATOM       NA         ZA         QA         VA         BVA        FA
  0 C      5.9559     6.0000     0.0441     3.9323     3.9323    -0.0000
  1 C      6.0738     6.0000    -0.0738     3.9127     3.9127    -0.0000
  2 H      0.9518     1.0000     0.0482     0.9965     0.9965    -0.0000
  3 H      0.9674     1.0000     0.0326     0.9738     0.9738    -0.0000
  4 C      5.8436     6.0000     0.1564     4.3605     4.3605     0.0000
  5 H      0.9852     1.0000     0.0148     0.9932     0.9932    -0.0000
  6 O      8.1739     8.0000    -0.1739     2.2541     2.2541     0.0000
  7 O      8.2263     8.0000    -0.2263     2.2831     2.2831     0.0000
  8 H      0.8222     1.0000     0.1778     1.0378     1.0378     0.0000

  Mayer bond orders larger than 0.1
B(  0-C ,  1-C ) :   1.9519 B(  0-C ,  2-H ) :   0.9474 B(  0-C ,  3-H ) :   0.9474 
B(  1-C ,  4-C ) :   0.9846 B(  1-C ,  5-H ) :   0.9573 B(  4-C ,  6-O ) :   1.2291 
B(  4-C ,  7-O ) :   2.0984 B(  6-O ,  8-H ) :   0.9475 

-------
TIMINGS
-------

Total SCF time: 0 days 0 hours 0 min 32 sec 

Total time                  ....      32.908 sec
Sum of individual times     ....      32.752 sec  ( 99.5%)

Fock matrix formation       ....      28.290 sec  ( 86.0%)
  Coulomb formation         ....      18.331 sec  ( 64.8% of F)
  Split-RI-J                ....       2.729 sec  (  9.6% of F)
  Chain of spheres X        ....      17.644 sec  ( 62.4% of F)
  COS-X 1 center corr.      ....       0.000 sec  (  0.0% of F)
  XC integration            ....       9.953 sec  ( 35.2% of F)
    Basis function eval.    ....       4.678 sec  ( 47.0% of XC)
    Density eval.           ....       1.552 sec  ( 15.6% of XC)
    XC-Functional eval.     ....       1.163 sec  ( 11.7% of XC)
    XC-Potential eval.      ....       2.041 sec  ( 20.5% of XC)
Diagonalization             ....       0.015 sec  (  0.0%)
Density matrix formation    ....       0.003 sec  (  0.0%)
Population analysis         ....       0.015 sec  (  0.0%)
Initial guess               ....       1.536 sec  (  4.7%)
Orbital Transformation      ....       0.000 sec  (  0.0%)
Orbital Orthonormalization  ....       0.000 sec  (  0.0%)
DIIS solution               ....       0.005 sec  (  0.0%)
SOSCF solution              ....       0.022 sec  (  0.1%)
Grid generation             ....       2.867 sec  (  8.7%)

-------------------------   --------------------
FINAL SINGLE POINT ENERGY      -266.828215991270
-------------------------   --------------------

------------------------------------------------------------------------------
                         ORCA SCF GRADIENT CALCULATION
------------------------------------------------------------------------------

Gradient of the Kohn-Sham DFT energy:
Kohn-Sham wavefunction type      ... RKS
Hartree-Fock exchange scaling    ...    0.200
Number of operators              ...    1
Number of atoms                  ...    9
Basis set dimensions             ...   90
Integral neglect threshold       ... 2.5e-11
Integral primitive cutoff        ... 2.5e-12

Nuclear repulsion gradient       ... done
One Electron Gradient            ... done
Pre-screening matrix             ... done
RI-J gradient                    ... done
COSX-gradient                    ... done
Exchange-correlation gradient    ... done

------------------
CARTESIAN GRADIENT
------------------

   1   C   :   -0.002232724    0.005383838    0.001524047
   2   C   :    0.013329306   -0.011743403   -0.002763123
   3   H   :   -0.002483798   -0.004429406   -0.001111170
   4   H   :    0.005825980    0.002564498    0.000880803
   5   C   :   -0.004927424   -0.007829167   -0.002228445
   6   H   :   -0.000934876    0.006573613    0.001643036
   7   O   :   -0.013996169   -0.005184107   -0.002109132
   8   O   :    0.002860020    0.008081317    0.001963957
   9   H   :    0.001139062    0.006598361    0.001729414

Norm of the cartesian gradient     ...    0.030290906
RMS gradient                       ...    0.005829488
MAX gradient                       ...    0.013996169

-------
TIMINGS
-------

Total SCF gradient time            ...        8.023 sec

One electron gradient       ....       0.052 sec  (  0.6%)
Prescreening matrices       ....       0.073 sec  (  0.9%)
RI-J Coulomb gradient       ....       0.401 sec  (  5.0%)
COSX gradient               ....       2.234 sec  ( 27.9%)
XC gradient                 ....       4.893 sec  ( 61.0%)
------------------------------------------------------------------------------
                         ORCA GEOMETRY RELAXATION STEP
------------------------------------------------------------------------------

Reading the OPT-File                    .... done
Getting information on internals        .... done
Copying old internal coords+grads       .... done
Making the new internal coordinates     .... (new redundants).... done
Validating the new internal coordinates .... (new redundants).... done
Calculating the B-matrix                .... done
Calculating the G,G- and P matrices     .... done
Transforming gradient to internals      .... done
Projecting the internal gradient        .... done
Number of atoms                         ....   9
Number of internal coordinates          ....  28
Current Energy                          ....  -266.828215991 Eh
Current gradient norm                   ....     0.030290906 Eh/bohr
Maximum allowed component of the step   ....  0.300
Current trust radius                    ....  0.300
Evaluating the initial hessian          ....  (Almloef) done
Projecting the Hessian                  .... done
Forming the augmented Hessian           .... done
Diagonalizing the augmented Hessian     .... done
Last element of RFO vector              ....  0.998000213
Lowest eigenvalues of augmented Hessian:
 -0.001485089  0.014871288  0.020422310  0.028297997  0.033047129
Length of the computed step             ....  0.063337225
The final length of the internal step   ....  0.063337225
Converting the step to cartesian space:
 Initial RMS(Int)=    0.0119696104
Transforming coordinates:
 Iter   0:  RMS(Cart)=    0.0192441444 RMS(Int)=    2.3715292278
 Iter   1:  RMS(Cart)=    0.0001134894 RMS(Int)=    0.0000877783
 Iter   2:  RMS(Cart)=    0.0000015920 RMS(Int)=    0.0000012520
 Iter   3:  RMS(Cart)=    0.0000000317 RMS(Int)=    0.0000000213
done
Storing new coordinates                 .... done

                                .--------------------.
          ----------------------|Geometry convergence|---------------------
          Item                value                 Tolerance   Converged
          -----------------------------------------------------------------
          RMS gradient        0.00496713            0.00010000      NO
          MAX gradient        0.01233446            0.00030000      NO
          RMS step            0.01196961            0.00200000      NO
          MAX step            0.02631632            0.00400000      NO
          ....................................................
          Max(Bonds)      0.0139      Max(Angles)    1.48
          Max(Dihed)        1.01      Max(Improp)    0.00
          -----------------------------------------------------------------

The optimization has not yet converged - more geometry cycles are needed


    ---------------------------------------------------------------------------
                         Redundant Internal Coordinates
                            (Angstroem and degrees)

        Definition                    Value    dE/dq     Step     New-Value
    ----------------------------------------------------------------------------
     1. B(C   1,C   0)                1.3387  0.000783 -0.0005    1.3381   
     2. B(H   2,C   0)                1.0869 -0.004694  0.0068    1.0937   
     3. B(H   3,C   0)                1.0847 -0.006563  0.0094    1.0941   
     4. B(C   4,C   1)                1.4691 -0.012334  0.0139    1.4830   
     5. B(H   5,C   1)                1.0828 -0.006735  0.0096    1.0924   
     6. B(O   6,C   4)                1.3421 -0.009807  0.0078    1.3499   
     7. B(O   7,C   4)                1.2154  0.008800 -0.0044    1.2111   
     8. B(H   8,O   6)                0.9797  0.004674 -0.0051    0.9746   
     9. A(C   1,C   0,H   3)          120.77 -0.001520    0.22    120.99   
    10. A(H   2,C   0,H   3)          117.65 -0.001392    0.25    117.90   
    11. A(C   1,C   0,H   2)          121.58  0.002911   -0.47    121.11   
    12. A(C   4,C   1,H   5)          117.58  0.003315   -0.51    117.08   
    13. A(C   0,C   1,H   5)          121.81  0.001102   -0.12    121.68   
    14. A(C   0,C   1,C   4)          120.61 -0.004417    0.63    121.24   
    15. A(C   1,C   4,O   6)          110.04 -0.007820    1.04    111.07   
    16. A(O   6,C   4,O   7)          122.37  0.002680   -0.35    122.01   
    17. A(C   1,C   4,O   7)          127.60  0.005140   -0.68    126.91   
    18. A(C   4,O   6,H   8)          103.63 -0.009624    1.48    105.12   
    19. D(C   4,C   1,C   0,H   3)   -179.98  0.000082   -0.18   -180.17   
    20. D(H   5,C   1,C   0,H   2)    179.98 -0.000195    0.33    180.31   
    21. D(C   4,C   1,C   0,H   2)     -0.00  0.000052   -0.14     -0.14   
    22. D(H   5,C   1,C   0,H   3)     -0.00 -0.000165    0.29      0.29   
    23. D(O   6,C   4,C   1,H   5)     -0.33 -0.000129    0.56      0.22   
    24. D(O   7,C   4,C   1,C   0)     -0.32 -0.000185    0.54      0.23   
    25. D(O   6,C   4,C   1,C   0)    179.65 -0.000366    1.01    180.66   
    26. D(O   7,C   4,C   1,H   5)    179.70  0.000052    0.09    179.79   
    27. D(H   8,O   6,C   4,O   7)      0.03  0.000070   -0.03     -0.01   
    28. D(H   8,O   6,C   4,C   1)   -179.94  0.000238   -0.48   -180.42   
    ----------------------------------------------------------------------------

         *************************************************************
         *                GEOMETRY OPTIMIZATION CYCLE   2            *
         *************************************************************
---------------------------------
CARTESIAN COORDINATES (ANGSTROEM)
---------------------------------
  C     -2.898730    1.578373   -0.009006
  C     -1.796554    0.828418   -0.124540
  H     -2.835840    2.639257    0.249484
  H     -3.891943    1.148868   -0.170767
  C     -0.447458    1.405774    0.089956
  H     -1.848131   -0.230728   -0.387201
  O      0.513244    0.475042   -0.091627
  O     -0.184529    2.551420    0.381576
  H      1.353721    0.943935    0.062115

----------------------------
CARTESIAN COORDINATES (A.U.)
----------------------------
  NO LB      ZA    FRAG    MASS        X           Y           Z
   0 C     6.0000    0    12.011         -5.477806447825800          2.982693137685403         -0.017018349426928
   1 C     6.0000    0    12.011         -3.394994918343897          1.565483210837543         -0.235345654927950
   2 H     1.0000    0     1.008         -5.358960443061588          4.987472920415305          0.471455734586351
   3 H     1.0000    0     1.008         -7.354707038362460          2.171046741630509         -0.322702872724590
   4 C     6.0000    0    12.011         -0.845572808779289          2.656528462689424          0.169992360822133
   5 H     1.0000    0     1.008         -3.492461854670994         -0.436012662287643         -0.731704692567601
   6 O     8.0000    0    15.999          0.969890785023802          0.897699694953205         -0.173149726208722
   7 O     8.0000    0    15.999         -0.348709252829875          4.821484656047321          0.721073364602736
   8 H     1.0000    0     1.008          2.558162491224453          1.783778498104139          0.117380938583231

--------------------------------
INTERNAL COORDINATES (ANGSTROEM)
--------------------------------
 C      0   0   0   0.000000     0.000     0.000
 C      1   0   0   1.338123     0.000     0.000
 H      1   2   0   1.093730   121.109     0.000
 H      1   2   3   1.094127   120.993   179.976
 C      2   1   3   1.483040   121.239   359.858
 H      2   1   3   1.092448   121.684   180.314
 O      5   2   1   1.349883   111.072   180.660
 O      5   2   1   1.211064   126.913     0.225
 H      7   5   2   0.974628   105.118   179.581

---------------------------
INTERNAL COORDINATES (A.U.)
---------------------------
 C      0   0   0   0.000000     0.000     0.000
 C      1   0   0   2.528686     0.000     0.000
 H      1   2   0   2.066851   121.109     0.000
 H      1   2   3   2.067600   120.993   179.976
 C      2   1   3   2.802540   121.239   359.858
 H      2   1   3   2.064427   121.684   180.314
 O      5   2   1   2.550908   111.072   180.660
 O      5   2   1   2.288580   126.913     0.225
 H      7   5   2   1.841779   105.118   179.581

 One Electron integrals                  ... done
 Pre-screening matrix                    ... done

Diagonalization of the overlap matrix:
Smallest eigenvalue                        ... 2.113e-03
Time for diagonalization                   ...    0.002 sec
Threshold for overlap eigenvalues          ... 1.000e-08
Number of eigenvalues below threshold      ... 0
Time for construction of square roots      ...    0.001 sec
Total time needed                          ...    0.003 sec

-------------------
DFT GRID GENERATION
-------------------

General Integration Accuracy     IntAcc      ...  4.670
Radial Grid Type                 RadialGrid  ... Gauss-Chebyshev
Angular Grid (max. acc.)         AngularGrid ... Lebedev-302
Angular grid pruning method      GridPruning ... 3 (G Style)
Weight generation scheme         WeightScheme... Becke
Basis function cutoff            BFCut       ...    1.0000e-11
Integration weight cutoff        WCut        ...    1.0000e-14
Grids for H and He will be reduced by one unit

# of grid points (after initial pruning)     ...  44636 (   0.0 sec)
# of grid points (after weights+screening)   ...  42467 (   0.1 sec)
nearest neighbour list constructed           ...    0.0 sec
Grid point re-assignment to atoms done       ...    0.0 sec
Grid point division into batches done        ...    0.2 sec
Reduced shell lists constructed in    0.6 sec

Total number of grid points                  ...    42467
Total number of batches                      ...      668
Average number of points per batch           ...       63
Average number of grid points per atom       ...     4719
Average number of shells per batch           ...    30.00 (71.43%)
Average number of basis functions per batch  ...    64.21 (71.35%)
Average number of large shells per batch     ...    24.48 (81.61%)
Average number of large basis fcns per batch ...    51.42 (80.08%)
Maximum spatial batch extension              ...  16.43, 18.45, 20.64 au
Average spatial batch extension              ...   2.67,  2.86,  3.09 au

Time for grid setup =    0.724 sec

--------------------
COSX GRID GENERATION
--------------------

General Integration Accuracy     IntAcc      ...  3.340
Radial Grid Type                 RadialGrid  ... Gauss-Chebyshev
Angular Grid (max. acc.)         AngularGrid ... Lebedev-50
Angular grid pruning method      GridPruning ... 3 (G Style)
Weight generation scheme         WeightScheme... Becke
Basis function cutoff            BFCut       ...    1.0000e-11
Integration weight cutoff        WCut        ...    1.0000e-14
Grids for H and He will be reduced by one unit

# of grid points (after initial pruning)     ...   4180 (   0.0 sec)
# of grid points (after weights+screening)   ...   4039 (   0.0 sec)
nearest neighbour list constructed           ...    0.0 sec
Grid point re-assignment to atoms done       ...    0.0 sec
Grid point division into batches done        ...    0.0 sec
Reduced shell lists constructed in    0.0 sec

Total number of grid points                  ...     4039
Total number of batches                      ...       66
Average number of points per batch           ...       61
Average number of grid points per atom       ...      449
Average number of shells per batch           ...    34.94 (83.19%)
Average number of basis functions per batch  ...    75.78 (84.20%)
Average number of large shells per batch     ...    30.12 (86.20%)
Average number of large basis fcns per batch ...    64.51 (85.13%)
Maximum spatial batch extension              ...  14.26, 20.68, 25.32 au
Average spatial batch extension              ...   4.94,  5.79,  6.69 au

Overlap Fitting                  UseSFitting ... on
Constructing numerical overlap ... done (      0.0 sec)
Inverting numerical overlap    ... done (      0.0 sec)
Obtaining analytic overlap     ... done (      0.0 sec)
Final contraction and storage  ... done (      0.0 sec)


General Integration Accuracy     IntAcc      ...  3.670
Radial Grid Type                 RadialGrid  ... Gauss-Chebyshev
Angular Grid (max. acc.)         AngularGrid ... Lebedev-50
Angular grid pruning method      GridPruning ... 3 (G Style)
Weight generation scheme         WeightScheme... Becke
Basis function cutoff            BFCut       ...    1.0000e-11
Integration weight cutoff        WCut        ...    1.0000e-14
Grids for H and He will be reduced by one unit

# of grid points (after initial pruning)     ...   5322 (   0.0 sec)
# of grid points (after weights+screening)   ...   5133 (   0.0 sec)
nearest neighbour list constructed           ...    0.0 sec
Grid point re-assignment to atoms done       ...    0.0 sec
Grid point division into batches done        ...    0.0 sec
Reduced shell lists constructed in    0.1 sec

Total number of grid points                  ...     5133
Total number of batches                      ...       84
Average number of points per batch           ...       61
Average number of grid points per atom       ...      570
Average number of shells per batch           ...    34.47 (82.07%)
Average number of basis functions per batch  ...    74.56 (82.85%)
Average number of large shells per batch     ...    29.69 (86.14%)
Average number of large basis fcns per batch ...    63.44 (85.07%)
Maximum spatial batch extension              ...  15.25, 22.63, 27.71 au
Average spatial batch extension              ...   4.64,  5.56,  6.65 au

Overlap Fitting                  UseSFitting ... on
Constructing numerical overlap ... done (      0.0 sec)
Inverting numerical overlap    ... done (      0.0 sec)
Obtaining analytic overlap     ... done (      0.0 sec)
Final contraction and storage  ... done (      0.0 sec)


General Integration Accuracy     IntAcc      ...  4.010
Radial Grid Type                 RadialGrid  ... Gauss-Chebyshev
Angular Grid (max. acc.)         AngularGrid ... Lebedev-110
Angular grid pruning method      GridPruning ... 3 (G Style)
Weight generation scheme         WeightScheme... Becke
Basis function cutoff            BFCut       ...    1.0000e-11
Integration weight cutoff        WCut        ...    1.0000e-14
Grids for H and He will be reduced by one unit

# of grid points (after initial pruning)     ...   9920 (   0.0 sec)
# of grid points (after weights+screening)   ...   9527 (   0.0 sec)
nearest neighbour list constructed           ...    0.0 sec
Grid point re-assignment to atoms done       ...    0.0 sec
Grid point division into batches done        ...    0.0 sec
Reduced shell lists constructed in    0.1 sec

Total number of grid points                  ...     9527
Total number of batches                      ...      153
Average number of points per batch           ...       62
Average number of grid points per atom       ...     1059
Average number of shells per batch           ...    33.42 (79.58%)
Average number of basis functions per batch  ...    72.07 (80.08%)
Average number of large shells per batch     ...    27.91 (83.50%)
Average number of large basis fcns per batch ...    59.25 (82.21%)
Maximum spatial batch extension              ...  15.53, 20.95, 22.09 au
Average spatial batch extension              ...   4.02,  4.53,  5.23 au

Overlap Fitting                  UseSFitting ... on
Constructing numerical overlap ... done (      0.1 sec)
Inverting numerical overlap    ... done (      0.0 sec)
Obtaining analytic overlap     ... done (      0.0 sec)
Final contraction and storage  ... done (      0.0 sec)

Time for X-Grid setup             =    0.538 sec
--------------
SCF ITERATIONS
--------------
ITER       Energy         Delta-E        Max-DP      RMS-DP      [F,P]     Damp
               ***  Starting incremental Fock matrix formation  ***
                      *** Initiating the SOSCF procedure ***
                      *** Re-Reading the Fockian *** 
                      *** Removing any level shift *** 
ITER      Energy       Delta-E        Grad      Rot      Max-DP    RMS-DP
  0   -266.82877903 -266.8287790337  0.001939  0.001939  0.010776  0.000495
               *** Restarting incremental Fock matrix formation ***
  1   -266.82906217  -0.0002831412  0.000906  0.002436  0.003104  0.000181
  2   -266.82907577  -0.0000135957  0.001120  0.001530  0.002763  0.000124
  3   -266.82908699  -0.0000112177  0.000426  0.000679  0.001717  0.000077
  4   -266.82908994  -0.0000029514  0.000297  0.000429  0.000869  0.000031
  5   -266.82909067  -0.0000007302  0.000223  0.000436  0.000540  0.000025
  6   -266.82909136  -0.0000006878  0.000070  0.000205  0.000240  0.000008
  7   -266.82909139  -0.0000000322  0.000064  0.000094  0.000153  0.000006
  8   -266.82909143  -0.0000000396  0.000016  0.000020  0.000054  0.000002
  9   -266.82909143   0.0000000041  0.000011  0.000009  0.000026  0.000001
                  ***Gradient check signals convergence***
              ***Rediagonalizing the Fockian in SOSCF/NRSCF***

               *****************************************************
               *                     SUCCESS                       *
               *           SCF CONVERGED AFTER  10 CYCLES          *
               *****************************************************

Setting up the final grid:

General Integration Accuracy     IntAcc      ...  5.010
Radial Grid Type                 RadialGrid  ... Gauss-Chebyshev
Angular Grid (max. acc.)         AngularGrid ... Lebedev-434
Angular grid pruning method      GridPruning ... 3 (G Style)
Weight generation scheme         WeightScheme... Becke
Basis function cutoff            BFCut       ...    1.0000e-11
Integration weight cutoff        WCut        ...    1.0000e-14
Grids for H and He will be reduced by one unit

# of grid points (after initial pruning)     ...  80546 (   0.0 sec)
# of grid points (after weights+screening)   ...  76576 (   0.2 sec)
nearest neighbour list constructed           ...    0.0 sec
Grid point re-assignment to atoms done       ...    0.0 sec
Grid point division into batches done        ...    0.6 sec
Reduced shell lists constructed in    1.4 sec

Total number of grid points                  ...    76576
Total number of batches                      ...     1202
Average number of points per batch           ...       63
Average number of grid points per atom       ...     8508
Average number of shells per batch           ...    29.19 (69.49%)
Average number of basis functions per batch  ...    62.34 (69.26%)
Average number of large shells per batch     ...    23.70 (81.21%)
Average number of large basis fcns per batch ...    49.67 (79.68%)
Maximum spatial batch extension              ...  18.57, 17.13, 19.88 au
Average spatial batch extension              ...   2.21,  2.30,  2.49 au

Final grid set up in    1.6 sec
Final integration                            ... done (   1.1 sec)
Change in XC energy                          ...    -0.000011008
Integrated number of electrons               ...    37.999999999
Previous integrated no of electrons          ...    38.000007223
Old exchange energy                            =     -6.668364250 Eh
New exchange energy                            =     -6.668384491 Eh
Exchange energy change after final integration =     -0.000020241 Eh
Total energy after final integration           =   -266.829122683 Eh
Final COS-X integration done in                =     2.176 sec
Total Energy       :         -266.82912268 Eh           -7260.78956 eV
  Last Energy change         ...   -8.0748e-09  Tolerance :   1.0000e-08
  Last MAX-Density change    ...    8.2056e-14  Tolerance :   1.0000e-07
             **** THE GBW FILE WAS UPDATED (Acrylic_acid.gbw) ****
             **** DENSITY FILE WAS UPDATED (Acrylic_acid.scfp.tmp) ****
             **** ENERGY FILE WAS UPDATED (Acrylic_acid.en.tmp) ****
Total SCF time: 0 days 0 hours 0 min 27 sec 

-------------------------   --------------------
FINAL SINGLE POINT ENERGY      -266.829122683107
-------------------------   --------------------

------------------------------------------------------------------------------
                         ORCA SCF GRADIENT CALCULATION
------------------------------------------------------------------------------

Gradient of the Kohn-Sham DFT energy:
Kohn-Sham wavefunction type      ... RKS
Hartree-Fock exchange scaling    ...    0.200
Number of operators              ...    1
Number of atoms                  ...    9
Basis set dimensions             ...   90
Integral neglect threshold       ... 2.5e-11
Integral primitive cutoff        ... 2.5e-12

Nuclear repulsion gradient       ... done
One Electron Gradient            ... done
Pre-screening matrix             ... done
RI-J gradient                    ... done
COSX-gradient                    ... done
Exchange-correlation gradient    ... done

------------------
CARTESIAN GRADIENT
------------------

   1   C   :    0.000888155    0.002053236    0.000744984
   2   C   :    0.004151862   -0.003354503   -0.001096924
   3   H   :   -0.001350252   -0.000060633   -0.000086355
   4   H   :   -0.000395743   -0.000027550   -0.000038621
   5   C   :   -0.003720844   -0.001717271    0.000201676
   6   H   :   -0.001080264    0.000453452   -0.000087828
   7   O   :   -0.001767700   -0.002093197   -0.000961506
   8   O   :    0.002202333    0.002669685    0.000269701
   9   H   :   -0.000220498    0.002292466    0.000513620

Norm of the cartesian gradient     ...    0.009028296
RMS gradient                       ...    0.001737496
MAX gradient                       ...    0.004151862

-------
TIMINGS
-------

Total SCF gradient time            ...        7.991 sec

One electron gradient       ....       0.052 sec  (  0.7%)
Prescreening matrices       ....       0.073 sec  (  0.9%)
RI-J Coulomb gradient       ....       0.399 sec  (  5.0%)
COSX gradient               ....       2.222 sec  ( 27.8%)
XC gradient                 ....       4.881 sec  ( 61.1%)
------------------------------------------------------------------------------
                         ORCA GEOMETRY RELAXATION STEP
------------------------------------------------------------------------------

Reading the OPT-File                    .... done
Getting information on internals        .... done
Copying old internal coords+grads       .... done
Making the new internal coordinates     .... (new redundants).... done
Validating the new internal coordinates .... (new redundants).... done
Calculating the B-matrix                .... done
Calculating the G,G- and P matrices     .... done
Transforming gradient to internals      .... done
Projecting the internal gradient        .... done
Number of atoms                         ....   9
Number of internal coordinates          ....  28
Current Energy                          ....  -266.829122683 Eh
Current gradient norm                   ....     0.009028296 Eh/bohr
Maximum allowed component of the step   ....  0.300
Current trust radius                    ....  0.300
Updating the Hessian (BFGS)             .... done
Forming the augmented Hessian           .... done
Diagonalizing the augmented Hessian     .... done
Last element of RFO vector              ....  0.999191954
Lowest eigenvalues of augmented Hessian:
 -0.000174101  0.014783563  0.020579659  0.028253609  0.033015251
Length of the computed step             ....  0.040225021
The final length of the internal step   ....  0.040225021
Converting the step to cartesian space:
 Initial RMS(Int)=    0.0076018143
Transforming coordinates:
 Iter   0:  RMS(Cart)=    0.0079638728 RMS(Int)=    1.1839733101
 Iter   1:  RMS(Cart)=    0.0000657322 RMS(Int)=    0.0000545388
 Iter   2:  RMS(Cart)=    0.0000007376 RMS(Int)=    0.0000006665
 Iter   3:  RMS(Cart)=    0.0000000120 RMS(Int)=    0.0000000106
done
Storing new coordinates                 .... done

                                .--------------------.
          ----------------------|Geometry convergence|---------------------
          Item                value                 Tolerance   Converged
          -----------------------------------------------------------------
          Energy change      -0.00090669            0.00000500      NO
          RMS gradient        0.00136128            0.00010000      NO
          MAX gradient        0.00380132            0.00030000      NO
          RMS step            0.00760181            0.00200000      NO
          MAX step            0.02240441            0.00400000      NO
          ....................................................
          Max(Bonds)      0.0040      Max(Angles)    0.83
          Max(Dihed)        1.28      Max(Improp)    0.00
          -----------------------------------------------------------------

The optimization has not yet converged - more geometry cycles are needed


    ---------------------------------------------------------------------------
                         Redundant Internal Coordinates
                            (Angstroem and degrees)

        Definition                    Value    dE/dq     Step     New-Value
    ----------------------------------------------------------------------------
     1. B(C   1,C   0)                1.3381  0.001477 -0.0013    1.3368   
     2. B(H   2,C   0)                1.0937 -0.000162  0.0007    1.0945   
     3. B(H   3,C   0)                1.0941  0.000248  0.0002    1.0943   
     4. B(C   4,C   1)                1.4830 -0.002212  0.0040    1.4871   
     5. B(H   5,C   1)                1.0924 -0.000365  0.0013    1.0937   
     6. B(O   6,C   4)                1.3499 -0.001278  0.0018    1.3517   
     7. B(O   7,C   4)                1.2111  0.003094 -0.0022    1.2088   
     8. B(H   8,O   6)                0.9746  0.001120 -0.0019    0.9728   
     9. A(C   1,C   0,H   3)          120.99 -0.000750    0.15    121.14   
    10. A(H   2,C   0,H   3)          117.90 -0.000867    0.21    118.11   
    11. A(C   1,C   0,H   2)          121.11  0.001617   -0.36    120.75   
    12. A(C   4,C   1,H   5)          117.08  0.001731   -0.37    116.70   
    13. A(C   0,C   1,H   5)          121.68 -0.000243    0.06    121.75   
    14. A(C   0,C   1,C   4)          121.24 -0.001487    0.31    121.55   
    15. A(C   1,C   4,O   6)          111.07 -0.000704    0.19    111.26   
    16. A(O   6,C   4,O   7)          122.01 -0.001585    0.22    122.23   
    17. A(C   1,C   4,O   7)          126.91  0.002286   -0.41    126.51   
    18. A(C   4,O   6,H   8)          105.12 -0.003801    0.83    105.95   
    19. D(C   4,C   1,C   0,H   3)    179.83  0.000044   -0.12    179.72   
    20. D(H   5,C   1,C   0,H   2)   -179.69 -0.000031    0.10   -179.58   
    21. D(C   4,C   1,C   0,H   2)     -0.14  0.000059   -0.14     -0.28   
    22. D(H   5,C   1,C   0,H   3)      0.29 -0.000046    0.13      0.42   
    23. D(O   6,C   4,C   1,H   5)      0.22  0.000105   -0.16      0.07   
    24. D(O   7,C   4,C   1,C   0)      0.23 -0.000332    1.28      1.51   
    25. D(O   6,C   4,C   1,C   0)   -179.34  0.000027    0.08   -179.26   
    26. D(O   7,C   4,C   1,H   5)    179.79 -0.000254    1.05    180.84   
    27. D(H   8,O   6,C   4,O   7)     -0.01  0.000239   -0.75     -0.76   
    28. D(H   8,O   6,C   4,C   1)    179.58 -0.000079    0.38    179.96   
    ----------------------------------------------------------------------------

         *************************************************************
         *                GEOMETRY OPTIMIZATION CYCLE   3            *
         *************************************************************
---------------------------------
CARTESIAN COORDINATES (ANGSTROEM)
---------------------------------
  C     -2.903110    1.577947   -0.010443
  C     -1.799640    0.831788   -0.122702
  H     -2.836716    2.640291    0.244249
  H     -3.896276    1.147007   -0.169736
  C     -0.445256    1.409391    0.085715
  H     -1.846571   -0.229477   -0.382973
  O      0.517723    0.478044   -0.093851
  O     -0.189362    2.550813    0.390647
  H      1.362988    0.934557    0.059083

----------------------------
CARTESIAN COORDINATES (A.U.)
----------------------------
  NO LB      ZA    FRAG    MASS        X           Y           Z
   0 C     6.0000    0    12.011         -5.486083181284757          2.981887899108107         -0.019735026523295
   1 C     6.0000    0    12.011         -3.400825950766420          1.571851388463757         -0.231872639859629
   2 H     1.0000    0     1.008         -5.360617260786326          4.989426920141229          0.461564588527643
   3 H     1.0000    0     1.008         -7.362895303008322          2.167529952895201         -0.320755277292817
   4 C     6.0000    0    12.011         -0.841411238299993          2.663362266185682          0.161978691786814
   5 H     1.0000    0     1.008         -3.489513666661216         -0.433649477709136         -0.723713657026499
   6 O     8.0000    0    15.999          0.978355505127092          0.903371817830898         -0.177352012325649
   7 O     8.0000    0    15.999         -0.357841642754639          4.820338037711103          0.738215371029515
   8 H     1.0000    0     1.008          2.575673250808932          1.766055855448366          0.111651064422578

--------------------------------
INTERNAL COORDINATES (ANGSTROEM)
--------------------------------
 C      0   0   0   0.000000     0.000     0.000
 C      1   0   0   1.336788     0.000     0.000
 H      1   2   0   1.094464   120.748     0.000
 H      1   2   3   1.094286   121.141   180.000
 C      2   1   3   1.487084   121.549   359.717
 H      2   1   3   1.093722   121.747   180.417
 O      5   2   1   1.351658   111.261   180.737
 O      5   2   1   1.208847   126.505     1.506
 H      7   5   2   0.972761   105.951   179.965

---------------------------
INTERNAL COORDINATES (A.U.)
---------------------------
 C      0   0   0   0.000000     0.000     0.000
 C      1   0   0   2.526164     0.000     0.000
 H      1   2   0   2.068237   120.748     0.000
 H      1   2   3   2.067901   121.141   180.000
 C      2   1   3   2.810181   121.549   359.717
 H      2   1   3   2.066835   121.747   180.417
 O      5   2   1   2.554264   111.261   180.737
 O      5   2   1   2.284389   126.505     1.506
 H      7   5   2   1.838252   105.951   179.965

 One Electron integrals                  ... done
 Pre-screening matrix                    ... done

Diagonalization of the overlap matrix:
Smallest eigenvalue                        ... 2.119e-03
Time for diagonalization                   ...    0.002 sec
Threshold for overlap eigenvalues          ... 1.000e-08
Number of eigenvalues below threshold      ... 0
Time for construction of square roots      ...    0.001 sec
Total time needed                          ...    0.003 sec

-------------------
DFT GRID GENERATION
-------------------

General Integration Accuracy     IntAcc      ...  4.670
Radial Grid Type                 RadialGrid  ... Gauss-Chebyshev
Angular Grid (max. acc.)         AngularGrid ... Lebedev-302
Angular grid pruning method      GridPruning ... 3 (G Style)
Weight generation scheme         WeightScheme... Becke
[...]
Constructing numerical overlap ... done (      0.1 sec)
Inverting numerical overlap    ... done (      0.0 sec)
Obtaining analytic overlap     ... done (      0.0 sec)
Final contraction and storage  ... done (      0.0 sec)

Time for X-Grid setup             =    0.533 sec
--------------
SCF ITERATIONS
--------------
ITER       Energy         Delta-E        Max-DP      RMS-DP      [F,P]     Damp
               ***  Starting incremental Fock matrix formation  ***
                      *** Initiating the SOSCF procedure ***
                      *** Re-Reading the Fockian *** 
                      *** Removing any level shift *** 
ITER      Energy       Delta-E        Grad      Rot      Max-DP    RMS-DP
  0   -266.82925410 -266.8292540956  0.000126  0.000126  0.000509  0.000023
               *** Restarting incremental Fock matrix formation ***
  1   -266.82925508  -0.0000009835  0.000039  0.000081  0.000134  0.000009
  2   -266.82925515  -0.0000000718  0.000038  0.000082  0.000109  0.000006
  3   -266.82925514   0.0000000149  0.000040  0.000040  0.000087  0.000004
  4   -266.82925517  -0.0000000319  0.000008  0.000010  0.000019  0.000001
  5   -266.82925517   0.0000000003  0.000010  0.000005  0.000012  0.000001
                  ***Gradient check signals convergence***
              ***Rediagonalizing the Fockian in SOSCF/NRSCF***

               *****************************************************
               *                     SUCCESS                       *
               *           SCF CONVERGED AFTER   6 CYCLES          *
               *****************************************************

Setting up the final grid:

General Integration Accuracy     IntAcc      ...  5.010
Radial Grid Type                 RadialGrid  ... Gauss-Chebyshev
Angular Grid (max. acc.)         AngularGrid ... Lebedev-434
Angular grid pruning method      GridPruning ... 3 (G Style)
Weight generation scheme         WeightScheme... Becke
Basis function cutoff            BFCut       ...    1.0000e-11
Integration weight cutoff        WCut        ...    1.0000e-14
Grids for H and He will be reduced by one unit

# of grid points (after initial pruning)     ...  80546 (   0.0 sec)
# of grid points (after weights+screening)   ...  76586 (   0.2 sec)
nearest neighbour list constructed           ...    0.0 sec
Grid point re-assignment to atoms done       ...    0.0 sec
Grid point division into batches done        ...    0.6 sec
Reduced shell lists constructed in    1.4 sec

Total number of grid points                  ...    76586
Total number of batches                      ...     1201
Average number of points per batch           ...       63
Average number of grid points per atom       ...     8510
Average number of shells per batch           ...    29.19 (69.51%)
Average number of basis functions per batch  ...    62.35 (69.28%)
Average number of large shells per batch     ...    23.65 (81.02%)
Average number of large basis fcns per batch ...    49.61 (79.56%)
Maximum spatial batch extension              ...  18.58, 17.59, 20.12 au
Average spatial batch extension              ...   2.21,  2.32,  2.50 au

Final grid set up in    1.6 sec
Final integration                            ... done (   1.1 sec)
Change in XC energy                          ...    -0.000010930
Integrated number of electrons               ...    37.999999982
Previous integrated no of electrons          ...    38.000007525
Old exchange energy                            =     -6.668646445 Eh
New exchange energy                            =     -6.668626297 Eh
Exchange energy change after final integration =      0.000020148 Eh
Total energy after final integration           =   -266.829245951 Eh
Final COS-X integration done in                =     2.204 sec

----------------
TOTAL SCF ENERGY
----------------

Total Energy       :         -266.82924595 Eh           -7260.79291 eV

Components:
Nuclear Repulsion  :          161.95561620 Eh            4407.03637 eV
Electronic Energy  :         -428.78486215 Eh          -11667.82928 eV

One Electron Energy:         -684.00500240 Eh          -18612.72237 eV
Two Electron Energy:          255.22014025 Eh            6944.89309 eV

Virial components:
Potential Energy   :         -531.43462439 Eh          -14461.07132 eV
Kinetic Energy     :          264.60537844 Eh            7200.27840 eV
Virial Ratio       :            2.00840447


DFT components:
N(Alpha)           :       18.999999990845 electrons
N(Beta)            :       18.999999990845 electrons
N(Total)           :       37.999999981690 electrons
E(X)               :      -26.541063222043 Eh       
E(C)               :       -1.538744748186 Eh       
E(XC)              :      -28.079807970230 Eh       

---------------
SCF CONVERGENCE
---------------

  Last Energy change         ...   -8.4367e-10  Tolerance :   1.0000e-08
  Last MAX-Density change    ...    2.0651e-14  Tolerance :   1.0000e-07
  Last RMS-Density change    ...    2.5925e-16  Tolerance :   5.0000e-09
  Last Orbital Gradient      ...    1.1887e-06  Tolerance :   1.0000e-05
  Last Orbital Rotation      ...    2.0433e-06  Tolerance :   1.0000e-05

             **** THE GBW FILE WAS UPDATED (Acrylic_acid.gbw) ****
             **** DENSITY FILE WAS UPDATED (Acrylic_acid.scfp.tmp) ****
             **** ENERGY FILE WAS UPDATED (Acrylic_acid.en.tmp) ****
----------------
ORBITAL ENERGIES
----------------

  NO   OCC          E(Eh)            E(eV) 
   0   2.0000     -19.179303      -521.8954 
   1   2.0000     -19.120096      -520.2842 
   2   2.0000     -10.315842      -280.7083 
   3   2.0000     -10.211703      -277.8746 
   4   2.0000     -10.206704      -277.7385 
   5   2.0000      -1.094476       -29.7822 
   6   2.0000      -1.001235       -27.2450 
   7   2.0000      -0.787913       -21.4402 
   8   2.0000      -0.666490       -18.1361 
   9   2.0000      -0.562408       -15.3039 
  10   2.0000      -0.513039       -13.9605 
  11   2.0000      -0.477426       -12.9914 
  12   2.0000      -0.450549       -12.2601 
  13   2.0000      -0.439744       -11.9660 
  14   2.0000      -0.411152       -11.1880 
  15   2.0000      -0.379062       -10.3148 
  16   2.0000      -0.324291        -8.8244 
  17   2.0000      -0.290568        -7.9068 
  18   2.0000      -0.280266        -7.6264 
  19   0.0000      -0.053130        -1.4458 
  20   0.0000       0.060382         1.6431 
  21   0.0000       0.079990         2.1766 
  22   0.0000       0.081443         2.2162 
  23   0.0000       0.108012         2.9392 
  24   0.0000       0.149395         4.0653 
  25   0.0000       0.231695         6.3047 
  26   0.0000       0.284757         7.7486 
  27   0.0000       0.300777         8.1846 
  28   0.0000       0.306810         8.3487 
  29   0.0000       0.400697        10.9035 
  30   0.0000       0.454479        12.3670 
  31   0.0000       0.456941        12.4340 
  32   0.0000       0.478789        13.0285 
  33   0.0000       0.532119        14.4797 
  34   0.0000       0.547189        14.8898 
  35   0.0000       0.570206        15.5161 
  36   0.0000       0.580114        15.7857 
  37   0.0000       0.642670        17.4879 
  38   0.0000       0.647759        17.6264 
  39   0.0000       0.658980        17.9318 
  40   0.0000       0.666441        18.1348 
  41   0.0000       0.703362        19.1395 
  42   0.0000       0.779844        21.2206 
  43   0.0000       0.801565        21.8117 
  44   0.0000       0.940661        25.5967 
  45   0.0000       0.951648        25.8957 
  46   0.0000       0.998895        27.1813 
  47   0.0000       1.064003        28.9530 
  48   0.0000       1.075951        29.2781 
  49   0.0000       1.171741        31.8847 
  50   0.0000       1.189903        32.3789 
  51   0.0000       1.223866        33.3031 
  52   0.0000       1.243217        33.8296 
  53   0.0000       1.334529        36.3144 
  54   0.0000       1.384205        37.6661 
  55   0.0000       1.389511        37.8105 
  56   0.0000       1.554914        42.3114 
  57   0.0000       1.574393        42.8414 
  58   0.0000       1.627138        44.2767 
  59   0.0000       1.657847        45.1123 
  60   0.0000       1.680813        45.7373 
  61   0.0000       1.698250        46.2117 
  62   0.0000       1.769843        48.1599 
  63   0.0000       1.793669        48.8082 
  64   0.0000       1.854992        50.4769 
  65   0.0000       1.901626        51.7459 
  66   0.0000       1.968732        53.5719 
  67   0.0000       2.012157        54.7536 
  68   0.0000       2.054080        55.8944 
  69   0.0000       2.113909        57.5224 
  70   0.0000       2.166613        58.9565 
  71   0.0000       2.218550        60.3698 
  72   0.0000       2.338839        63.6430 
  73   0.0000       2.429693        66.1153 
  74   0.0000       2.440327        66.4047 
  75   0.0000       2.471394        67.2501 
  76   0.0000       2.641220        71.8712 
  77   0.0000       2.685087        73.0649 
  78   0.0000       2.734119        74.3992 
  79   0.0000       2.765225        75.2456 
  80   0.0000       2.890840        78.6637 
  81   0.0000       2.919497        79.4436 
  82   0.0000       2.932240        79.7903 
  83   0.0000       3.053930        83.1016 
  84   0.0000       3.202623        87.1478 
  85   0.0000       3.215644        87.5021 
  86   0.0000       3.266753        88.8929 
  87   0.0000       3.531027        96.0841 
  88   0.0000       3.642164        99.1083 
  89   0.0000       3.789401       103.1148 

                    ********************************
                    * MULLIKEN POPULATION ANALYSIS *
                    ********************************

-----------------------
MULLIKEN ATOMIC CHARGES
-----------------------
   0 C :    0.034601
   1 C :   -0.075649
   2 H :    0.049931
   3 H :    0.037155
   4 C :    0.153788
   5 H :    0.017682
   6 O :   -0.181114
   7 O :   -0.214938
   8 H :    0.178544
Sum of atomic charges:   -0.0000000

--------------------------------
MULLIKEN REDUCED ORBITAL CHARGES
--------------------------------
  0 C s       :     3.120242  s :     3.120242
      pz      :     0.898165  p :     2.818263
      px      :     0.960964
      py      :     0.959134
      dz2     :     0.001591  d :     0.026893
      dxz     :     0.004205
      dyz     :     0.002268
      dx2y2   :     0.010535
      dxy     :     0.008295
  1 C s       :     3.186994  s :     3.186994
      pz      :     1.009022  p :     2.857638
      px      :     0.933937
      py      :     0.914680
      dz2     :     0.002433  d :     0.031017
      dxz     :     0.004199
      dyz     :     0.002878
      dx2y2   :     0.012384
      dxy     :     0.009124
  2 H s       :     0.926502  s :     0.926502
      pz      :     0.004552  p :     0.023567
      px      :     0.004244
      py      :     0.014770
  3 H s       :     0.939531  s :     0.939531
      pz      :     0.004467  p :     0.023314
      px      :     0.013103
      py      :     0.005744
  4 C s       :     3.031594  s :     3.031594
      pz      :     0.828951  p :     2.680615
      px      :     0.938824
      py      :     0.912839
      dz2     :     0.010474  d :     0.134003
      dxz     :     0.012972
      dyz     :     0.025298
      dx2y2   :     0.031814
      dxy     :     0.053446
  5 H s       :     0.959617  s :     0.959617
      pz      :     0.004916  p :     0.022701
      px      :     0.003169
      py      :     0.014616
  6 O s       :     3.676186  s :     3.676186
      pz      :     1.760266  p :     4.491314
      px      :     1.175903
      py      :     1.555145
      dz2     :     0.001898  d :     0.013613
      dxz     :     0.000951
      dyz     :     0.002293
      dx2y2   :     0.002043
      dxy     :     0.006428
  7 O s       :     3.718686  s :     3.718686
      pz      :     1.402914  p :     4.477787
      px      :     1.729836
      py      :     1.345036
      dz2     :     0.002390  d :     0.018464
      dxz     :     0.000519
      dyz     :     0.005692
      dx2y2   :     0.005689
      dxy     :     0.004175
  8 H s       :     0.755754  s :     0.755754
      pz      :     0.015953  p :     0.065702
      px      :     0.032157
      py      :     0.017592


                     *******************************
                     * LOEWDIN POPULATION ANALYSIS *
                     *******************************

----------------------
LOEWDIN ATOMIC CHARGES
----------------------
   0 C :    0.023987
   1 C :   -0.070437
   2 H :    0.037478
   3 H :    0.033329
   4 C :    0.075012
   5 H :    0.034826
   6 O :   -0.043461
   7 O :   -0.185755
   8 H :    0.095021

-------------------------------
LOEWDIN REDUCED ORBITAL CHARGES
-------------------------------
  0 C s       :     2.892304  s :     2.892304
      pz      :     0.892175  p :     3.014973
      px      :     1.062825
      py      :     1.059973
      dz2     :     0.004394  d :     0.068736
      dxz     :     0.008346
      dyz     :     0.004824
      dx2y2   :     0.028765
      dxy     :     0.022407
  1 C s       :     2.890422  s :     2.890422
      pz      :     0.988236  p :     3.095438
      px      :     1.053598
      py      :     1.053605
      dz2     :     0.006569  d :     0.084576
      dxz     :     0.009737
      dyz     :     0.005779
      dx2y2   :     0.034796
      dxy     :     0.027695
  2 H s       :     0.893580  s :     0.893580
      pz      :     0.014054  p :     0.068942
      px      :     0.011389
      py      :     0.043499
  3 H s       :     0.899697  s :     0.899697
      pz      :     0.013276  p :     0.066974
      px      :     0.036704
      py      :     0.016993
  4 C s       :     2.844209  s :     2.844209
      pz      :     0.824809  p :     2.787962
      px      :     0.969887
      py      :     0.993265
      dz2     :     0.021694  d :     0.292817
      dxz     :     0.025331
      dyz     :     0.050881
      dx2y2   :     0.071606
      dxy     :     0.123304
  5 H s       :     0.896558  s :     0.896558
      pz      :     0.015788  p :     0.068616
      px      :     0.010736
      py      :     0.042092
  6 O s       :     3.433875  s :     3.433875
      pz      :     1.722174  p :     4.582743
      px      :     1.251189
      py      :     1.609380
      dz2     :     0.004110  d :     0.026844
      dxz     :     0.002043
      dyz     :     0.002543
      dx2y2   :     0.004337
      dxy     :     0.013812
  7 O s       :     3.544902  s :     3.544902
      pz      :     1.407563  p :     4.609329
      px      :     1.733060
      py      :     1.468706
      dz2     :     0.004190  d :     0.031523
      dxz     :     0.000755
      dyz     :     0.008231
      dx2y2   :     0.011352
      dxy     :     0.006995
  8 H s       :     0.732800  s :     0.732800
      pz      :     0.044734  p :     0.172179
      px      :     0.077274
      py      :     0.050171


                      *****************************
                      * MAYER POPULATION ANALYSIS *
                      *****************************

  NA   - Mulliken gross atomic population
  ZA   - Total nuclear charge
  QA   - Mulliken gross atomic charge
  VA   - Mayer's total valence
  BVA  - Mayer's bonded valence
  FA   - Mayer's free valence

  ATOM       NA         ZA         QA         VA         BVA        FA
  0 C      5.9654     6.0000     0.0346     3.9307     3.9307    -0.0000
  1 C      6.0756     6.0000    -0.0756     3.9123     3.9123     0.0000
  2 H      0.9501     1.0000     0.0499     0.9960     0.9960    -0.0000
  3 H      0.9628     1.0000     0.0372     0.9740     0.9740     0.0000
  4 C      5.8462     6.0000     0.1538     4.3612     4.3612    -0.0000
  5 H      0.9823     1.0000     0.0177     0.9918     0.9918    -0.0000
  6 O      8.1811     8.0000    -0.1811     2.2453     2.2453     0.0000
  7 O      8.2149     8.0000    -0.2149     2.2886     2.2886     0.0000
  8 H      0.8215     1.0000     0.1785     1.0343     1.0343     0.0000

  Mayer bond orders larger than 0.1
B(  0-C ,  1-C ) :   1.9587 B(  0-C ,  2-H ) :   0.9446 B(  0-C ,  3-H ) :   0.9471 
B(  1-C ,  4-C ) :   0.9775 B(  1-C ,  5-H ) :   0.9546 B(  4-C ,  6-O ) :   1.2213 
B(  4-C ,  7-O ) :   2.1101 B(  6-O ,  8-H ) :   0.9481 

-------
TIMINGS
-------

Total SCF time: 0 days 0 hours 0 min 19 sec 

Total time                  ....      19.206 sec
Sum of individual times     ....      16.774 sec  ( 87.3%)

Fock matrix formation       ....      13.874 sec  ( 72.2%)
  Coulomb formation         ....       8.928 sec  ( 64.3% of F)
  Split-RI-J                ....       1.332 sec  (  9.6% of F)
  Chain of spheres X        ....       9.745 sec  ( 70.2% of F)
  COS-X 1 center corr.      ....       0.000 sec  (  0.0% of F)
  XC integration            ....       4.943 sec  ( 35.6% of F)
    Basis function eval.    ....       2.452 sec  ( 49.6% of XC)
    Density eval.           ....       0.814 sec  ( 16.5% of XC)
    XC-Functional eval.     ....       0.590 sec  ( 11.9% of XC)
    XC-Potential eval.      ....       0.959 sec  ( 19.4% of XC)
Diagonalization             ....       0.002 sec  (  0.0%)
Density matrix formation    ....       0.001 sec  (  0.0%)
Population analysis         ....       0.008 sec  (  0.0%)
Initial guess               ....       0.006 sec  (  0.0%)
Orbital Transformation      ....       0.000 sec  (  0.0%)
Orbital Orthonormalization  ....       0.005 sec  (  0.0%)
DIIS solution               ....       0.000 sec  (  0.0%)
SOSCF solution              ....       0.011 sec  (  0.1%)
Grid generation             ....       2.870 sec  ( 14.9%)

-------------------------   --------------------
FINAL SINGLE POINT ENERGY      -266.829245950860
-------------------------   --------------------

                                *** OPTIMIZATION RUN DONE ***

                            ***************************************
                            *     ORCA property calculations      *
                            ***************************************

                                    ---------------------
                                    Active property flags
                                    ---------------------
   (+) Dipole Moment


------------------------------------------------------------------------------
                       ORCA ELECTRIC PROPERTIES CALCULATION
------------------------------------------------------------------------------

Dipole Moment Calculation                       ... on
Quadrupole Moment Calculation                   ... off
Polarizability Calculation                      ... off
GBWName                                         ... Acrylic_acid.gbw
Electron density file                           ... Acrylic_acid.scfp.tmp

-------------
DIPOLE MOMENT
-------------
                                X             Y             Z
Electronic contribution:      3.19350       0.44140       0.30673
Nuclear contribution   :     -3.39703      -0.93930      -0.45417
                        -----------------------------------------
Total Dipole Moment    :     -0.20353      -0.49790      -0.14745
                        -----------------------------------------
Magnitude (a.u.)       :      0.55774
Magnitude (Debye)      :      1.41766


Timings for individual modules:

Sum of individual times         ...      196.046 sec (=   3.267 min)
GTO integral calculation        ...        1.341 sec (=   0.022 min)   0.7 %
SCF iterations                  ...      154.512 sec (=   2.575 min)  78.8 %
SCF Gradient evaluation         ...       39.946 sec (=   0.666 min)  20.4 %
Geometry relaxation             ...        0.248 sec (=   0.004 min)   0.1 %
                             ****ORCA TERMINATED NORMALLY****
TOTAL RUN TIME: 0 days 0 hours 3 minutes 16 seconds 327 msec
/opt/gridunesp/internals//bin/goo-job-nanny: line 95: 20185 Terminated              checkpoint "$ORIG_DIR"
